#LAMMPS Data file Monomer-Chain
 
200 atoms
199 bonds
198 angles
2 atom types
2 bond types
2 angle types
-110.0 +110.0 xlo xhi
-110.0 +110.0 ylo yhi
-110.0 +110.0 zlo zhi
 
Masses
 
  1  10.0
  2  100.0
 
Atoms
 
 1 2 1  0.00000  0.00000  -109.00000 0 0 0
 2 1 2  0.49606  0.06267  -109.00000 0 0 0
 3 2 1  0.00000  0.00000  -108.00000 0 0 0
 4 1 2  0.48429  0.12434  -108.00000 0 0 0
 5 2 1  0.00000  0.00000  -107.00000 0 0 0
 6 1 2  0.46489  0.18406  -107.00000 0 0 0
 7 2 1  0.00000  0.00000  -106.00000 0 0 0
 8 1 2  0.43815  0.24088  -106.00000 0 0 0
 9 2 1  0.00000  0.00000  -105.00000 0 0 0
 10 1 2  0.40451  0.29389  -105.00000 0 0 0
 11 2 1  0.00000  0.00000  -104.00000 0 0 0
 12 1 2  0.36448  0.34227  -104.00000 0 0 0
 13 2 1  0.00000  0.00000  -103.00000 0 0 0
 14 1 2  0.31871  0.38526  -103.00000 0 0 0
 15 2 1  0.00000  0.00000  -102.00000 0 0 0
 16 1 2  0.26791  0.42216  -102.00000 0 0 0
 17 2 1  0.00000  0.00000  -101.00000 0 0 0
 18 1 2  0.21289  0.45241  -101.00000 0 0 0
 19 2 1  0.00000  0.00000  -100.00000 0 0 0
 20 1 2  0.15451  0.47553  -100.00000 0 0 0
 21 2 1  0.00000  0.00000  -99.00000 0 0 0
 22 1 2  0.09369  0.49114  -99.00000 0 0 0
 23 2 1  0.00000  0.00000  -98.00000 0 0 0
 24 1 2  0.03140  0.49901  -98.00000 0 0 0
 25 2 1  0.00000  0.00000  -97.00000 0 0 0
 26 1 2  -0.03139  0.49901  -97.00000 0 0 0
 27 2 1  0.00000  0.00000  -96.00000 0 0 0
 28 1 2  -0.09369  0.49114  -96.00000 0 0 0
 29 2 1  0.00000  0.00000  -95.00000 0 0 0
 30 1 2  -0.15451  0.47553  -95.00000 0 0 0
 31 2 1  0.00000  0.00000  -94.00000 0 0 0
 32 1 2  -0.21289  0.45241  -94.00000 0 0 0
 33 2 1  0.00000  0.00000  -93.00000 0 0 0
 34 1 2  -0.26791  0.42216  -93.00000 0 0 0
 35 2 1  0.00000  0.00000  -92.00000 0 0 0
 36 1 2  -0.31871  0.38526  -92.00000 0 0 0
 37 2 1  0.00000  0.00000  -91.00000 0 0 0
 38 1 2  -0.36448  0.34227  -91.00000 0 0 0
 39 2 1  0.00000  0.00000  -90.00000 0 0 0
 40 1 2  -0.40451  0.29389  -90.00000 0 0 0
 41 2 1  0.00000  0.00000  -89.00000 0 0 0
 42 1 2  -0.43815  0.24088  -89.00000 0 0 0
 43 2 1  0.00000  0.00000  -88.00000 0 0 0
 44 1 2  -0.46489  0.18406  -88.00000 0 0 0
 45 2 1  0.00000  0.00000  -87.00000 0 0 0
 46 1 2  -0.48429  0.12435  -87.00000 0 0 0
 47 2 1  0.00000  0.00000  -86.00000 0 0 0
 48 1 2  -0.49606  0.06267  -86.00000 0 0 0
 49 2 1  0.00000  0.00000  -85.00000 0 0 0
 50 1 2  -0.50000  0.00000  -85.00000 0 0 0
 51 2 1  0.00000  0.00000  -84.00000 0 0 0
 52 1 2  -0.49606  -0.06267  -84.00000 0 0 0
 53 2 1  0.00000  0.00000  -83.00000 0 0 0
 54 1 2  -0.48429  -0.12434  -83.00000 0 0 0
 55 2 1  0.00000  0.00000  -82.00000 0 0 0
 56 1 2  -0.46489  -0.18406  -82.00000 0 0 0
 57 2 1  0.00000  0.00000  -81.00000 0 0 0
 58 1 2  -0.43815  -0.24088  -81.00000 0 0 0
 59 2 1  0.00000  0.00000  -80.00000 0 0 0
 60 1 2  -0.40451  -0.29389  -80.00000 0 0 0
 61 2 1  0.00000  0.00000  -79.00000 0 0 0
 62 1 2  -0.36449  -0.34227  -79.00000 0 0 0
 63 2 1  0.00000  0.00000  -78.00000 0 0 0
 64 1 2  -0.31871  -0.38526  -78.00000 0 0 0
 65 2 1  0.00000  0.00000  -77.00000 0 0 0
 66 1 2  -0.26791  -0.42216  -77.00000 0 0 0
 67 2 1  0.00000  0.00000  -76.00000 0 0 0
 68 1 2  -0.21289  -0.45241  -76.00000 0 0 0
 69 2 1  0.00000  0.00000  -75.00000 0 0 0
 70 1 2  -0.15451  -0.47553  -75.00000 0 0 0
 71 2 1  0.00000  0.00000  -74.00000 0 0 0
 72 1 2  -0.09369  -0.49114  -74.00000 0 0 0
 73 2 1  0.00000  0.00000  -73.00000 0 0 0
 74 1 2  -0.03140  -0.49901  -73.00000 0 0 0
 75 2 1  0.00000  0.00000  -72.00000 0 0 0
 76 1 2  0.03139  -0.49901  -72.00000 0 0 0
 77 2 1  0.00000  0.00000  -71.00000 0 0 0
 78 1 2  0.09369  -0.49114  -71.00000 0 0 0
 79 2 1  0.00000  0.00000  -70.00000 0 0 0
 80 1 2  0.15451  -0.47553  -70.00000 0 0 0
 81 2 1  0.00000  0.00000  -69.00000 0 0 0
 82 1 2  0.21289  -0.45241  -69.00000 0 0 0
 83 2 1  0.00000  0.00000  -68.00000 0 0 0
 84 1 2  0.26791  -0.42217  -68.00000 0 0 0
 85 2 1  0.00000  0.00000  -67.00000 0 0 0
 86 1 2  0.31871  -0.38526  -67.00000 0 0 0
 87 2 1  0.00000  0.00000  -66.00000 0 0 0
 88 1 2  0.36448  -0.34228  -66.00000 0 0 0
 89 2 1  0.00000  0.00000  -65.00000 0 0 0
 90 1 2  0.40451  -0.29389  -65.00000 0 0 0
 91 2 1  0.00000  0.00000  -64.00000 0 0 0
 92 1 2  0.43815  -0.24088  -64.00000 0 0 0
 93 2 1  0.00000  0.00000  -63.00000 0 0 0
 94 1 2  0.46489  -0.18406  -63.00000 0 0 0
 95 2 1  0.00000  0.00000  -62.00000 0 0 0
 96 1 2  0.48429  -0.12435  -62.00000 0 0 0
 97 2 1  0.00000  0.00000  -61.00000 0 0 0
 98 1 2  0.49606  -0.06267  -61.00000 0 0 0
 99 2 1  0.00000  0.00000  -60.00000 0 0 0
 100 1 2  0.50000  -0.00000  -60.00000 0 0 0
 101 2 1  0.00000  0.00000  -59.00000 0 0 0
 102 1 2  0.49606  0.06266  -59.00000 0 0 0
 103 2 1  0.00000  0.00000  -58.00000 0 0 0
 104 1 2  0.48429  0.12434  -58.00000 0 0 0
 105 2 1  0.00000  0.00000  -57.00000 0 0 0
 106 1 2  0.46489  0.18406  -57.00000 0 0 0
 107 2 1  0.00000  0.00000  -56.00000 0 0 0
 108 1 2  0.43815  0.24087  -56.00000 0 0 0
 109 2 1  0.00000  0.00000  -55.00000 0 0 0
 110 1 2  0.40451  0.29389  -55.00000 0 0 0
 111 2 1  0.00000  0.00000  -54.00000 0 0 0
 112 1 2  0.36449  0.34227  -54.00000 0 0 0
 113 2 1  0.00000  0.00000  -53.00000 0 0 0
 114 1 2  0.31871  0.38525  -53.00000 0 0 0
 115 2 1  0.00000  0.00000  -52.00000 0 0 0
 116 1 2  0.26792  0.42216  -52.00000 0 0 0
 117 2 1  0.00000  0.00000  -51.00000 0 0 0
 118 1 2  0.21289  0.45241  -51.00000 0 0 0
 119 2 1  0.00000  0.00000  -50.00000 0 0 0
 120 1 2  0.15451  0.47553  -50.00000 0 0 0
 121 2 1  0.00000  0.00000  -49.00000 0 0 0
 122 1 2  0.09369  0.49114  -49.00000 0 0 0
 123 2 1  0.00000  0.00000  -48.00000 0 0 0
 124 1 2  0.03140  0.49901  -48.00000 0 0 0
 125 2 1  0.00000  0.00000  -47.00000 0 0 0
 126 1 2  -0.03139  0.49901  -47.00000 0 0 0
 127 2 1  0.00000  0.00000  -46.00000 0 0 0
 128 1 2  -0.09369  0.49114  -46.00000 0 0 0
 129 2 1  0.00000  0.00000  -45.00000 0 0 0
 130 1 2  -0.15451  0.47553  -45.00000 0 0 0
 131 2 1  0.00000  0.00000  -44.00000 0 0 0
 132 1 2  -0.21289  0.45242  -44.00000 0 0 0
 133 2 1  0.00000  0.00000  -43.00000 0 0 0
 134 1 2  -0.26791  0.42217  -43.00000 0 0 0
 135 2 1  0.00000  0.00000  -42.00000 0 0 0
 136 1 2  -0.31871  0.38526  -42.00000 0 0 0
 137 2 1  0.00000  0.00000  -41.00000 0 0 0
 138 1 2  -0.36448  0.34228  -41.00000 0 0 0
 139 2 1  0.00000  0.00000  -40.00000 0 0 0
 140 1 2  -0.40451  0.29390  -40.00000 0 0 0
 141 2 1  0.00000  0.00000  -39.00000 0 0 0
 142 1 2  -0.43815  0.24088  -39.00000 0 0 0
 143 2 1  0.00000  0.00000  -38.00000 0 0 0
 144 1 2  -0.46489  0.18407  -38.00000 0 0 0
 145 2 1  0.00000  0.00000  -37.00000 0 0 0
 146 1 2  -0.48429  0.12435  -37.00000 0 0 0
 147 2 1  0.00000  0.00000  -36.00000 0 0 0
 148 1 2  -0.49606  0.06267  -36.00000 0 0 0
 149 2 1  0.00000  0.00000  -35.00000 0 0 0
 150 1 2  -0.50000  0.00000  -35.00000 0 0 0
 151 2 1  0.00000  0.00000  -34.00000 0 0 0
 152 1 2  -0.49606  -0.06266  -34.00000 0 0 0
 153 2 1  0.00000  0.00000  -33.00000 0 0 0
 154 1 2  -0.48429  -0.12434  -33.00000 0 0 0
 155 2 1  0.00000  0.00000  -32.00000 0 0 0
 156 1 2  -0.46489  -0.18406  -32.00000 0 0 0
 157 2 1  0.00000  0.00000  -31.00000 0 0 0
 158 1 2  -0.43816  -0.24087  -31.00000 0 0 0
 159 2 1  0.00000  0.00000  -30.00000 0 0 0
 160 1 2  -0.40451  -0.29389  -30.00000 0 0 0
 161 2 1  0.00000  0.00000  -29.00000 0 0 0
 162 1 2  -0.36449  -0.34227  -29.00000 0 0 0
 163 2 1  0.00000  0.00000  -28.00000 0 0 0
 164 1 2  -0.31872  -0.38525  -28.00000 0 0 0
 165 2 1  0.00000  0.00000  -27.00000 0 0 0
 166 1 2  -0.26792  -0.42216  -27.00000 0 0 0
 167 2 1  0.00000  0.00000  -26.00000 0 0 0
 168 1 2  -0.21289  -0.45241  -26.00000 0 0 0
 169 2 1  0.00000  0.00000  -25.00000 0 0 0
 170 1 2  -0.15451  -0.47553  -25.00000 0 0 0
 171 2 1  0.00000  0.00000  -24.00000 0 0 0
 172 1 2  -0.09370  -0.49114  -24.00000 0 0 0
 173 2 1  0.00000  0.00000  -23.00000 0 0 0
 174 1 2  -0.03140  -0.49901  -23.00000 0 0 0
 175 2 1  0.00000  0.00000  -22.00000 0 0 0
 176 1 2  0.03139  -0.49901  -22.00000 0 0 0
 177 2 1  0.00000  0.00000  -21.00000 0 0 0
 178 1 2  0.09369  -0.49114  -21.00000 0 0 0
 179 2 1  0.00000  0.00000  -20.00000 0 0 0
 180 1 2  0.15450  -0.47553  -20.00000 0 0 0
 181 2 1  0.00000  0.00000  -19.00000 0 0 0
 182 1 2  0.21289  -0.45242  -19.00000 0 0 0
 183 2 1  0.00000  0.00000  -18.00000 0 0 0
 184 1 2  0.26791  -0.42217  -18.00000 0 0 0
 185 2 1  0.00000  0.00000  -17.00000 0 0 0
 186 1 2  0.31871  -0.38526  -17.00000 0 0 0
 187 2 1  0.00000  0.00000  -16.00000 0 0 0
 188 1 2  0.36448  -0.34228  -16.00000 0 0 0
 189 2 1  0.00000  0.00000  -15.00000 0 0 0
 190 1 2  0.40451  -0.29390  -15.00000 0 0 0
 191 2 1  0.00000  0.00000  -14.00000 0 0 0
 192 1 2  0.43815  -0.24088  -14.00000 0 0 0
 193 2 1  0.00000  0.00000  -13.00000 0 0 0
 194 1 2  0.46489  -0.18407  -13.00000 0 0 0
 195 2 1  0.00000  0.00000  -12.00000 0 0 0
 196 1 2  0.48429  -0.12435  -12.00000 0 0 0
 197 2 1  0.00000  0.00000  -11.00000 0 0 0
 198 1 2  0.49606  -0.06267  -11.00000 0 0 0
 199 2 1  0.00000  0.00000  -10.00000 0 0 0
 200 1 2  0.50000  -0.00001  -10.00000 0 0 0
 
Angles
 
     1 2  2 1 4
     2 1  1 3 4
     3 2  4 3 6
     4 1  3 5 6
     5 2  6 5 8
     6 1  5 7 8
     7 2  8 7 10
     8 1  7 9 10
     9 2  10 9 12
     10 1  9 11 12
     11 2  12 11 14
     12 1  11 13 14
     13 2  14 13 16
     14 1  13 15 16
     15 2  16 15 18
     16 1  15 17 18
     17 2  18 17 20
     18 1  17 19 20
     19 2  20 19 22
     20 1  19 21 22
     21 2  22 21 24
     22 1  21 23 24
     23 2  24 23 26
     24 1  23 25 26
     25 2  26 25 28
     26 1  25 27 28
     27 2  28 27 30
     28 1  27 29 30
     29 2  30 29 32
     30 1  29 31 32
     31 2  32 31 34
     32 1  31 33 34
     33 2  34 33 36
     34 1  33 35 36
     35 2  36 35 38
     36 1  35 37 38
     37 2  38 37 40
     38 1  37 39 40
     39 2  40 39 42
     40 1  39 41 42
     41 2  42 41 44
     42 1  41 43 44
     43 2  44 43 46
     44 1  43 45 46
     45 2  46 45 48
     46 1  45 47 48
     47 2  48 47 50
     48 1  47 49 50
     49 2  50 49 52
     50 1  49 51 52
     51 2  52 51 54
     52 1  51 53 54
     53 2  54 53 56
     54 1  53 55 56
     55 2  56 55 58
     56 1  55 57 58
     57 2  58 57 60
     58 1  57 59 60
     59 2  60 59 62
     60 1  59 61 62
     61 2  62 61 64
     62 1  61 63 64
     63 2  64 63 66
     64 1  63 65 66
     65 2  66 65 68
     66 1  65 67 68
     67 2  68 67 70
     68 1  67 69 70
     69 2  70 69 72
     70 1  69 71 72
     71 2  72 71 74
     72 1  71 73 74
     73 2  74 73 76
     74 1  73 75 76
     75 2  76 75 78
     76 1  75 77 78
     77 2  78 77 80
     78 1  77 79 80
     79 2  80 79 82
     80 1  79 81 82
     81 2  82 81 84
     82 1  81 83 84
     83 2  84 83 86
     84 1  83 85 86
     85 2  86 85 88
     86 1  85 87 88
     87 2  88 87 90
     88 1  87 89 90
     89 2  90 89 92
     90 1  89 91 92
     91 2  92 91 94
     92 1  91 93 94
     93 2  94 93 96
     94 1  93 95 96
     95 2  96 95 98
     96 1  95 97 98
     97 2  98 97 100
     98 1  97 99 100
     99 2  100 99 102
     100 1  99 101 102
     101 2  102 101 104
     102 1  101 103 104
     103 2  104 103 106
     104 1  103 105 106
     105 2  106 105 108
     106 1  105 107 108
     107 2  108 107 110
     108 1  107 109 110
     109 2  110 109 112
     110 1  109 111 112
     111 2  112 111 114
     112 1  111 113 114
     113 2  114 113 116
     114 1  113 115 116
     115 2  116 115 118
     116 1  115 117 118
     117 2  118 117 120
     118 1  117 119 120
     119 2  120 119 122
     120 1  119 121 122
     121 2  122 121 124
     122 1  121 123 124
     123 2  124 123 126
     124 1  123 125 126
     125 2  126 125 128
     126 1  125 127 128
     127 2  128 127 130
     128 1  127 129 130
     129 2  130 129 132
     130 1  129 131 132
     131 2  132 131 134
     132 1  131 133 134
     133 2  134 133 136
     134 1  133 135 136
     135 2  136 135 138
     136 1  135 137 138
     137 2  138 137 140
     138 1  137 139 140
     139 2  140 139 142
     140 1  139 141 142
     141 2  142 141 144
     142 1  141 143 144
     143 2  144 143 146
     144 1  143 145 146
     145 2  146 145 148
     146 1  145 147 148
     147 2  148 147 150
     148 1  147 149 150
     149 2  150 149 152
     150 1  149 151 152
     151 2  152 151 154
     152 1  151 153 154
     153 2  154 153 156
     154 1  153 155 156
     155 2  156 155 158
     156 1  155 157 158
     157 2  158 157 160
     158 1  157 159 160
     159 2  160 159 162
     160 1  159 161 162
     161 2  162 161 164
     162 1  161 163 164
     163 2  164 163 166
     164 1  163 165 166
     165 2  166 165 168
     166 1  165 167 168
     167 2  168 167 170
     168 1  167 169 170
     169 2  170 169 172
     170 1  169 171 172
     171 2  172 171 174
     172 1  171 173 174
     173 2  174 173 176
     174 1  173 175 176
     175 2  176 175 178
     176 1  175 177 178
     177 2  178 177 180
     178 1  177 179 180
     179 2  180 179 182
     180 1  179 181 182
     181 2  182 181 184
     182 1  181 183 184
     183 2  184 183 186
     184 1  183 185 186
     185 2  186 185 188
     186 1  185 187 188
     187 2  188 187 190
     188 1  187 189 190
     189 2  190 189 192
     190 1  189 191 192
     191 2  192 191 194
     192 1  191 193 194
     193 2  194 193 196
     194 1  193 195 196
     195 2  196 195 198
     196 1  195 197 198
     197 2  198 197 200
     198 1  197 199 200
 
Bonds
 
     1  2     1     2 
     2  1     1     3 
     3  2     3     4 
     4  1     3     5 
     5  2     5     6 
     6  1     5     7 
     7  2     7     8 
     8  1     7     9 
     9  2     9     10 
     10  1     9     11 
     11  2     11     12 
     12  1     11     13 
     13  2     13     14 
     14  1     13     15 
     15  2     15     16 
     16  1     15     17 
     17  2     17     18 
     18  1     17     19 
     19  2     19     20 
     20  1     19     21 
     21  2     21     22 
     22  1     21     23 
     23  2     23     24 
     24  1     23     25 
     25  2     25     26 
     26  1     25     27 
     27  2     27     28 
     28  1     27     29 
     29  2     29     30 
     30  1     29     31 
     31  2     31     32 
     32  1     31     33 
     33  2     33     34 
     34  1     33     35 
     35  2     35     36 
     36  1     35     37 
     37  2     37     38 
     38  1     37     39 
     39  2     39     40 
     40  1     39     41 
     41  2     41     42 
     42  1     41     43 
     43  2     43     44 
     44  1     43     45 
     45  2     45     46 
     46  1     45     47 
     47  2     47     48 
     48  1     47     49 
     49  2     49     50 
     50  1     49     51 
     51  2     51     52 
     52  1     51     53 
     53  2     53     54 
     54  1     53     55 
     55  2     55     56 
     56  1     55     57 
     57  2     57     58 
     58  1     57     59 
     59  2     59     60 
     60  1     59     61 
     61  2     61     62 
     62  1     61     63 
     63  2     63     64 
     64  1     63     65 
     65  2     65     66 
     66  1     65     67 
     67  2     67     68 
     68  1     67     69 
     69  2     69     70 
     70  1     69     71 
     71  2     71     72 
     72  1     71     73 
     73  2     73     74 
     74  1     73     75 
     75  2     75     76 
     76  1     75     77 
     77  2     77     78 
     78  1     77     79 
     79  2     79     80 
     80  1     79     81 
     81  2     81     82 
     82  1     81     83 
     83  2     83     84 
     84  1     83     85 
     85  2     85     86 
     86  1     85     87 
     87  2     87     88 
     88  1     87     89 
     89  2     89     90 
     90  1     89     91 
     91  2     91     92 
     92  1     91     93 
     93  2     93     94 
     94  1     93     95 
     95  2     95     96 
     96  1     95     97 
     97  2     97     98 
     98  1     97     99 
     99  2     99     100 
     100  1     99     101 
     101  2     101     102 
     102  1     101     103 
     103  2     103     104 
     104  1     103     105 
     105  2     105     106 
     106  1     105     107 
     107  2     107     108 
     108  1     107     109 
     109  2     109     110 
     110  1     109     111 
     111  2     111     112 
     112  1     111     113 
     113  2     113     114 
     114  1     113     115 
     115  2     115     116 
     116  1     115     117 
     117  2     117     118 
     118  1     117     119 
     119  2     119     120 
     120  1     119     121 
     121  2     121     122 
     122  1     121     123 
     123  2     123     124 
     124  1     123     125 
     125  2     125     126 
     126  1     125     127 
     127  2     127     128 
     128  1     127     129 
     129  2     129     130 
     130  1     129     131 
     131  2     131     132 
     132  1     131     133 
     133  2     133     134 
     134  1     133     135 
     135  2     135     136 
     136  1     135     137 
     137  2     137     138 
     138  1     137     139 
     139  2     139     140 
     140  1     139     141 
     141  2     141     142 
     142  1     141     143 
     143  2     143     144 
     144  1     143     145 
     145  2     145     146 
     146  1     145     147 
     147  2     147     148 
     148  1     147     149 
     149  2     149     150 
     150  1     149     151 
     151  2     151     152 
     152  1     151     153 
     153  2     153     154 
     154  1     153     155 
     155  2     155     156 
     156  1     155     157 
     157  2     157     158 
     158  1     157     159 
     159  2     159     160 
     160  1     159     161 
     161  2     161     162 
     162  1     161     163 
     163  2     163     164 
     164  1     163     165 
     165  2     165     166 
     166  1     165     167 
     167  2     167     168 
     168  1     167     169 
     169  2     169     170 
     170  1     169     171 
     171  2     171     172 
     172  1     171     173 
     173  2     173     174 
     174  1     173     175 
     175  2     175     176 
     176  1     175     177 
     177  2     177     178 
     178  1     177     179 
     179  2     179     180 
     180  1     179     181 
     181  2     181     182 
     182  1     181     183 
     183  2     183     184 
     184  1     183     185 
     185  2     185     186 
     186  1     185     187 
     187  2     187     188 
     188  1     187     189 
     189  2     189     190 
     190  1     189     191 
     191  2     191     192 
     192  1     191     193 
     193  2     193     194 
     194  1     193     195 
     195  2     195     196 
     196  1     195     197 
     197  2     197     198 
     198  1     197     199 
     199  2     199     200 
