#LAMMPS Data file Monomer-Chain
 
72 atoms
108 bonds
1 atom types
1 bond types
-110.0 +110.0 xlo xhi
-110.0 +110.0 ylo yhi
-110.0 +110.0 zlo zhi
 
Masses
 
  1  1.0
 
Atoms
 
 1 1 1  5.00000  0.00000  -109.00000 0 0 0
 2 1 1  4.92404  0.86824  -109.00000 0 0 0
 3 1 1  4.69846  1.71010  -109.00000 0 0 0
 4 1 1  4.33013  2.50000  -109.00000 0 0 0
 5 1 1  3.83022  3.21394  -109.00000 0 0 0
 6 1 1  3.21394  3.83022  -109.00000 0 0 0
 7 1 1  2.50000  4.33012  -109.00000 0 0 0
 8 1 1  1.71011  4.69846  -109.00000 0 0 0
 9 1 1  0.86825  4.92404  -109.00000 0 0 0
 10 1 1  0.00001  5.00000  -109.00000 0 0 0
 11 1 1  -0.86823  4.92404  -109.00000 0 0 0
 12 1 1  -1.71009  4.69847  -109.00000 0 0 0
 13 1 1  -2.49999  4.33013  -109.00000 0 0 0
 14 1 1  -3.21393  3.83023  -109.00000 0 0 0
 15 1 1  -3.83022  3.21395  -109.00000 0 0 0
 16 1 1  -4.33012  2.50001  -109.00000 0 0 0
 17 1 1  -4.69846  1.71011  -109.00000 0 0 0
 18 1 1  -4.92404  0.86825  -109.00000 0 0 0
 19 1 1  -5.00000  0.00001  -109.00000 0 0 0
 20 1 1  -4.92404  -0.86823  -109.00000 0 0 0
 21 1 1  -4.69847  -1.71009  -109.00000 0 0 0
 22 1 1  -4.33013  -2.49999  -109.00000 0 0 0
 23 1 1  -3.83023  -3.21393  -109.00000 0 0 0
 24 1 1  -3.21395  -3.83021  -109.00000 0 0 0
 25 1 1  -2.50002  -4.33012  -109.00000 0 0 0
 26 1 1  -1.71012  -4.69846  -109.00000 0 0 0
 27 1 1  -0.86826  -4.92404  -109.00000 0 0 0
 28 1 1  -0.00002  -5.00000  -109.00000 0 0 0
 29 1 1  0.86822  -4.92404  -109.00000 0 0 0
 30 1 1  1.71008  -4.69847  -109.00000 0 0 0
 31 1 1  2.49998  -4.33014  -109.00000 0 0 0
 32 1 1  3.21392  -3.83024  -109.00000 0 0 0
 33 1 1  3.83021  -3.21396  -109.00000 0 0 0
 34 1 1  4.33011  -2.50002  -109.00000 0 0 0
 35 1 1  4.69845  -1.71012  -109.00000 0 0 0
 36 1 1  4.92403  -0.86827  -109.00000 0 0 0
 37 1 1  5.00000  0.00000  -10.00000 0 0 0
 38 1 1  4.92404  0.86824  -10.00000 0 0 0
 39 1 1  4.69846  1.71010  -10.00000 0 0 0
 40 1 1  4.33013  2.50000  -10.00000 0 0 0
 41 1 1  3.83022  3.21394  -10.00000 0 0 0
 42 1 1  3.21394  3.83022  -10.00000 0 0 0
 43 1 1  2.50000  4.33012  -10.00000 0 0 0
 44 1 1  1.71011  4.69846  -10.00000 0 0 0
 45 1 1  0.86825  4.92404  -10.00000 0 0 0
 46 1 1  0.00001  5.00000  -10.00000 0 0 0
 47 1 1  -0.86823  4.92404  -10.00000 0 0 0
 48 1 1  -1.71009  4.69847  -10.00000 0 0 0
 49 1 1  -2.49999  4.33013  -10.00000 0 0 0
 50 1 1  -3.21393  3.83023  -10.00000 0 0 0
 51 1 1  -3.83022  3.21395  -10.00000 0 0 0
 52 1 1  -4.33012  2.50001  -10.00000 0 0 0
 53 1 1  -4.69846  1.71011  -10.00000 0 0 0
 54 1 1  -4.92404  0.86825  -10.00000 0 0 0
 55 1 1  -5.00000  0.00001  -10.00000 0 0 0
 56 1 1  -4.92404  -0.86823  -10.00000 0 0 0
 57 1 1  -4.69847  -1.71009  -10.00000 0 0 0
 58 1 1  -4.33013  -2.49999  -10.00000 0 0 0
 59 1 1  -3.83023  -3.21393  -10.00000 0 0 0
 60 1 1  -3.21395  -3.83021  -10.00000 0 0 0
 61 1 1  -2.50002  -4.33012  -10.00000 0 0 0
 62 1 1  -1.71012  -4.69846  -10.00000 0 0 0
 63 1 1  -0.86826  -4.92404  -10.00000 0 0 0
 64 1 1  -0.00002  -5.00000  -10.00000 0 0 0
 65 1 1  0.86822  -4.92404  -10.00000 0 0 0
 66 1 1  1.71008  -4.69847  -10.00000 0 0 0
 67 1 1  2.49998  -4.33014  -10.00000 0 0 0
 68 1 1  3.21392  -3.83024  -10.00000 0 0 0
 69 1 1  3.83021  -3.21396  -10.00000 0 0 0
 70 1 1  4.33011  -2.50002  -10.00000 0 0 0
 71 1 1  4.69845  -1.71012  -10.00000 0 0 0
 72 1 1  4.92403  -0.86827  -10.00000 0 0 0
 
Bonds
 
     1  1     1     2 
     2  1     2     3 
     3  1     3     4 
     4  1     4     5 
     5  1     5     6 
     6  1     6     7 
     7  1     7     8 
     8  1     8     9 
     9  1     9     10 
     10  1     10     11 
     11  1     11     12 
     12  1     12     13 
     13  1     13     14 
     14  1     14     15 
     15  1     15     16 
     16  1     16     17 
     17  1     17     18 
     18  1     18     19 
     19  1     19     20 
     20  1     20     21 
     21  1     21     22 
     22  1     22     23 
     23  1     23     24 
     24  1     24     25 
     25  1     25     26 
     26  1     26     27 
     27  1     27     28 
     28  1     28     29 
     29  1     29     30 
     30  1     30     31 
     31  1     31     32 
     32  1     32     33 
     33  1     33     34 
     34  1     34     35 
     35  1     35     36 
     36  1     36     1 
     37  1     37     38 
     38  1     38     39 
     39  1     39     40 
     40  1     40     41 
     41  1     41     42 
     42  1     42     43 
     43  1     43     44 
     44  1     44     45 
     45  1     45     46 
     46  1     46     47 
     47  1     47     48 
     48  1     48     49 
     49  1     49     50 
     50  1     50     51 
     51  1     51     52 
     52  1     52     53 
     53  1     53     54 
     54  1     54     55 
     55  1     55     56 
     56  1     56     57 
     57  1     57     58 
     58  1     58     59 
     59  1     59     60 
     60  1     60     61 
     61  1     61     62 
     62  1     62     63 
     63  1     63     64 
     64  1     64     65 
     65  1     65     66 
     66  1     66     67 
     67  1     67     68 
     68  1     68     69 
     69  1     69     70 
     70  1     70     71 
     71  1     71     72 
     72  1     72     37 
     73  1     1     37 
     74  1     2     38 
     75  1     3     39 
     76  1     4     40 
     77  1     5     41 
     78  1     6     42 
     79  1     7     43 
     80  1     8     44 
     81  1     9     45 
     82  1     10     46 
     83  1     11     47 
     84  1     12     48 
     85  1     13     49 
     86  1     14     50 
     87  1     15     51 
     88  1     16     52 
     89  1     17     53 
     90  1     18     54 
     91  1     19     55 
     92  1     20     56 
     93  1     21     57 
     94  1     22     58 
     95  1     23     59 
     96  1     24     60 
     97  1     25     61 
     98  1     26     62 
     99  1     27     63 
     100  1     28     64 
     101  1     29     65 
     102  1     30     66 
     103  1     31     67 
     104  1     32     68 
     105  1     33     69 
     106  1     34     70 
     107  1     35     71 
     108  1     36     72 
